Von:	Peter C. Burns [prof.peter.c.burns@gmail.com]
Gesendet:	Dienstag, 27. Juli 2010 22:12
An:	CrysDATA
Betreff:	Deposition (UO2)60(O2)60(C2O4)30

data_sq

_audit_creation_method            SHELXL-97
_chemical_name_systematic
;
 ?
;
_chemical_name_common             'KU60Ox30'
_chemical_melting_point           'n/a'
_chemical_formula_moiety          'K12[(UO2)60(O2)60(C2O4)30]'
_chemical_formula_sum            'C60 K12 O360 U60'
_chemical_formula_weight          21231.60

loop_
 _atom_type_symbol
 _atom_type_description
 _atom_type_scat_dispersion_real
 _atom_type_scat_dispersion_imag
 _atom_type_scat_source
 'O'  'O'   0.0106   0.0060
 'International Tables Vol C Tables 4.2.6.8 and 6.1.1.4'
 'C'  'C'   0.0033   0.0016
 'International Tables Vol C Tables 4.2.6.8 and 6.1.1.4'
 'U'  'U'  -9.6767   9.6646
 'International Tables Vol C Tables 4.2.6.8 and 6.1.1.4'
 'K'  'K'   0.2009   0.2494
 'International Tables Vol C Tables 4.2.6.8 and 6.1.1.4'

_symmetry_cell_setting            'Orthorhombic'
_symmetry_space_group_name_H-M    'Cmca'

loop_
 _symmetry_equiv_pos_as_xyz
 'x, y, z'
 '-x, -y+1/2, z+1/2'
 '-x, y+1/2, -z+1/2'
 'x, -y, -z'
 'x+1/2, y+1/2, z'
 '-x+1/2, -y+1, z+1/2'
 '-x+1/2, y+1, -z+1/2'
 'x+1/2, -y+1/2, -z'
 '-x, -y, -z'
 'x, y-1/2, -z-1/2'
 'x, -y-1/2, z-1/2'
 '-x, y, z'
 '-x+1/2, -y+1/2, -z'
 'x+1/2, y, -z-1/2'
 'x+1/2, -y, z-1/2'
 '-x+1/2, y+1/2, z'

_cell_length_a                    42.602(3)
_cell_length_b                    43.590(3)
_cell_length_c                    45.626(3)
_cell_angle_alpha                 90.00
_cell_angle_beta                  90.00
_cell_angle_gamma                 90.00
_cell_volume                      84728(8)
_cell_formula_units_Z             4
_cell_measurement_temperature     100(2)
_cell_measurement_reflns_used     15721
_cell_measurement_theta_min       0.80
_cell_measurement_theta_max       18.38

_exptl_crystal_description        'block'
_exptl_crystal_colour             'yellow'
_exptl_crystal_size_max           0.072
_exptl_crystal_size_mid           0.068
_exptl_crystal_size_min           0.062
_exptl_crystal_density_meas       'n/a'
_exptl_crystal_density_diffrn     1.664
_exptl_crystal_density_method     'not measured'
_exptl_crystal_F_000              35952
_exptl_absorpt_coefficient_mu     11.533
_exptl_absorpt_correction_type    'multi-scan'
_exptl_absorpt_correction_T_min   0.453
_exptl_absorpt_correction_T_max   0.489
_exptl_absorpt_process_details    'SADABS'

_exptl_special_details
;
 ?
;

_diffrn_ambient_temperature       100(2)
_diffrn_radiation_wavelength      0.71073
_diffrn_radiation_type            MoK\a
_diffrn_radiation_source          'fine-focus sealed tube'
_diffrn_radiation_monochromator   graphite
_diffrn_measurement_device_type  'Bruker APEX'
_diffrn_measurement_method        '0.3 wide w/ exposures'
_diffrn_detector_area_resol_mean  0
_diffrn_standards_number          'N/A'
_diffrn_standards_interval_count  'N/A'
_diffrn_standards_interval_time   'N/A'
_diffrn_standards_decay_%         0
_diffrn_reflns_number             207801
_diffrn_reflns_av_R_equivalents   0.1044
_diffrn_reflns_av_sigmaI/netI     0.0644
_diffrn_reflns_limit_h_min        -37
_diffrn_reflns_limit_h_max        37
_diffrn_reflns_limit_k_min        -38
_diffrn_reflns_limit_k_max        38
_diffrn_reflns_limit_l_min        -40
_diffrn_reflns_limit_l_max        40
_diffrn_reflns_theta_min          0.80
_diffrn_reflns_theta_max          18.38
_reflns_number_total              15721
_reflns_number_gt                 10487
_reflns_threshold_expression      >2sigma(I)

_computing_data_collection        'SMART'
_computing_cell_refinement        'SMART SAINT'
_computing_data_reduction         'SAINT'
_computing_structure_solution     'SHELXS-97 (Sheldrick, 1990)'
_computing_structure_refinement   'SHELXL-97 (Sheldrick, 1997)'
_computing_molecular_graphics     'SHELXP-97 (Sheldrick, 1997)'
_computing_publication_material   'SHELCIF-97 (Sheldrick, 2000)'

_refine_special_details
;
 Refinement of F^2^ against ALL reflections.  The weighted R-factor wR and  
goodness of fit S are based on F^2^, conventional R-factors R are based  on F, 
with F set to zero for negative F^2^. The threshold expression of  F^2^ > 
2sigma(F^2^) is used only for calculating R-factors(gt) etc. and is  not 
relevant to the choice of reflections for refinement.  R-factors based  on 
F^2^ are statistically about twice as large as those based on F, and R-  
factors based on ALL data will be even larger.
;

_refine_ls_structure_factor_coef  Fsqd
_refine_ls_matrix_type            full
_refine_ls_weighting_scheme       calc
_refine_ls_weighting_details
 'calc w=1/[\s^2^(Fo^2^)+(0.0654P)^2^+0.0000P] where P=(Fo^2^+2Fc^2^)/3'
_atom_sites_solution_primary      direct
_atom_sites_solution_secondary    difmap
_atom_sites_solution_hydrogens    none
_refine_ls_hydrogen_treatment     none
_refine_ls_extinction_method      none
_refine_ls_extinction_coef        ?
_refine_ls_number_reflns          15721
_refine_ls_number_parameters      599
_refine_ls_number_restraints      0
_refine_ls_R_factor_all           0.0732
_refine_ls_R_factor_gt            0.0449
_refine_ls_wR_factor_ref          0.1122
_refine_ls_wR_factor_gt           0.1062
_refine_ls_goodness_of_fit_ref    0.932
_refine_ls_restrained_S_all       0.932
_refine_ls_shift/su_max           0.001
_refine_ls_shift/su_mean          0.000

loop_
 _atom_site_label
 _atom_site_type_symbol
 _atom_site_fract_x
 _atom_site_fract_y
 _atom_site_fract_z
 _atom_site_U_iso_or_equiv
 _atom_site_adp_type
 _atom_site_occupancy
 _atom_site_symmetry_multiplicity
 _atom_site_calc_flag
 _atom_site_refinement_flags
 _atom_site_disorder_assembly
 _atom_site_disorder_group
U1 U 0.42071(2) 0.009891(18) 0.236117(17) 0.0550(3) Uani 1 1 d . . .
U2 U 0.45012(2) -0.082116(18) 0.239837(16) 0.0505(3) Uani 1 1 d . . .
U3 U 0.5000 0.06745(3) 0.23499(2) 0.0577(4) Uani 1 2 d S . .
U4 U 0.30284(2) 0.05248(2) 0.312767(18) 0.0637(3) Uani 1 1 d . . .
U5 U 0.5000 0.19444(3) 0.30650(2) 0.0573(4) Uani 1 2 d S . .
U6 U 0.29591(2) -0.15013(2) 0.367584(19) 0.0671(3) Uani 1 1 d . . .
U7 U 0.37353(2) -0.178752(19) 0.317816(17) 0.0597(3) Uani 1 1 d . . .
U8 U 0.69905(2) 0.13691(2) 0.356043(18) 0.0628(3) Uani 1 1 d . . .
U9 U 0.42519(2) -0.240457(19) 0.370486(17) 0.0621(3) Uani 1 1 d . . .
U10 U 0.25097(2) -0.01093(2) 0.363531(18) 0.0645(3) Uani 1 1 d . . .
U11 U 0.54879(2) 0.272744(19) 0.426527(18) 0.0656(3) Uani 1 1 d . . .
U12 U 0.57936(2) 0.224638(19) 0.352226(18) 0.0619(3) Uani 1 1 d . . .
U13 U 0.38096(2) -0.24863(2) 0.452054(19) 0.0698(3) Uani 1 1 d . . .
U14 U 0.30227(2) -0.19093(2) 0.45075(2) 0.0770(3) Uani 1 1 d . . .
U15 U 0.74839(2) 0.12462(2) 0.434140(19) 0.0684(3) Uani 1 1 d . . .
U16 U 0.78100(2) 0.03450(2) 0.43839(2) 0.0770(3) Uani 1 1 d . . .
K1 K 0.5000 -0.01482(15) 0.28411(15) 0.067(2) Uani 1 2 d S . .
K2 K 0.5000 0.19292(16) 0.39824(15) 0.077(2) Uani 1 2 d S . .
K3 K 0.69092(14) 0.05339(11) 0.40393(12) 0.0921(19) Uani 1 1 d . . .
K4 K 0.38244(13) -0.16511(12) 0.40766(11) 0.0852(18) Uani 1 1 d . . .
O1 O 0.4496(3) -0.1328(3) 0.2649(3) 0.055(4) Uiso 1 1 d . . .
O2 O 0.5000 0.2882(4) 0.4080(4) 0.060(6) Uiso 1 2 d S . .
O3 O 0.5000 0.0479(4) 0.2698(4) 0.053(5) Uiso 1 2 d S . .
O4 O 0.2816(3) -0.0519(3) 0.3394(3) 0.067(4) Uiso 1 1 d . . .
O5 O 0.5000 0.2913(4) 0.4406(4) 0.060(6) Uiso 1 2 d S . .
O6 O 0.5000 0.2131(4) 0.2702(4) 0.062(6) Uiso 1 2 d S . .
O7 O 0.4652(3) 0.0311(3) 0.2155(3) 0.060(4) Uiso 1 1 d . . .
O8 O 0.7814(3) 0.0860(3) 0.4503(3) 0.073(4) Uiso 1 1 d . . .
O9 O 0.4455(3) -0.0340(3) 0.2174(2) 0.046(4) Uiso 1 1 d . . .
O10 O 0.3817(3) -0.2246(3) 0.3435(3) 0.062(4) Uiso 1 1 d . . .
O11 O 0.7808(3) 0.0829(3) 0.4191(3) 0.060(4) Uiso 1 1 d . . .
O12 O 0.2965(3) -0.1923(3) 0.3992(3) 0.062(4) Uiso 1 1 d . . .
O13 O 0.3230(3) -0.1577(3) 0.3246(3) 0.065(4) Uiso 1 1 d . . .
O14 O 0.4380(3) -0.1007(3) 0.2062(3) 0.062(4) Uiso 1 1 d . . .
O15 O 0.2749(3) 0.0077(3) 0.3213(3) 0.067(4) Uiso 1 1 d . . .
O16 O 0.3330(3) -0.2331(3) 0.4365(3) 0.067(4) Uiso 1 1 d . . .
O17 O 0.5349(3) 0.2326(3) 0.3246(2) 0.046(4) Uiso 1 1 d . . .
O18 O 0.5000 -0.1038(4) 0.2337(4) 0.063(6) Uiso 1 2 d S . .
O19 O 0.5865(3) 0.2584(3) 0.3920(3) 0.056(4) Uiso 1 1 d . . .
O20 O 0.3265(3) -0.1860(3) 0.3420(2) 0.046(4) Uiso 1 1 d . . .
O21 O 0.3844(3) -0.2536(3) 0.4013(3) 0.055(4) Uiso 1 1 d . . .
O22 O 0.4464(3) 0.0552(3) 0.2286(3) 0.062(4) Uiso 1 1 d . . .
O23 O 0.3249(3) 0.0479(3) 0.3460(3) 0.068(4) Uiso 1 1 d . . .
O24 O 0.5000 0.1732(4) 0.3416(4) 0.060(6) Uiso 1 2 d S . .
O25 O 0.7793(3) 0.0245(3) 0.3884(3) 0.069(4) Uiso 1 1 d . . .
O26 O 0.3997(3) -0.0961(3) 0.2613(3) 0.057(4) Uiso 1 1 d . . .
O27 O 0.7151(3) 0.0993(3) 0.4361(3) 0.066(4) Uiso 1 1 d . . .
O28 O 0.7434(3) 0.1274(3) 0.3829(3) 0.063(4) Uiso 1 1 d . . .
O29 O 0.5536(3) 0.2069(3) 0.3115(3) 0.063(4) Uiso 1 1 d . . .
O30 O 0.5000 -0.0729(4) 0.2200(4) 0.067(6) Uiso 1 2 d S . .
O31 O 0.4390(3) 0.0048(3) 0.2710(3) 0.057(4) Uiso 1 1 d . . .
O32 O 0.4098(3) -0.2167(3) 0.3260(3) 0.064(4) Uiso 1 1 d . . .
O33 O 0.5637(3) 0.3111(3) 0.4246(3) 0.058(4) Uiso 1 1 d . . .
O34 O 0.4614(3) -0.0646(3) 0.2736(3) 0.064(4) Uiso 1 1 d . . .
O35 O 0.3333(3) -0.2312(3) 0.4686(3) 0.079(5) Uiso 1 1 d . . .
O36 O 0.3808(3) -0.2443(3) 0.5058(3) 0.075(5) Uiso 1 1 d . . .
O37 O 0.3724(3) -0.1304(3) 0.2883(3) 0.066(4) Uiso 1 1 d . . .
O38 O 0.4292(3) -0.2033(3) 0.3870(3) 0.068(4) Uiso 1 1 d . . .
O39 O 0.3906(3) 0.0528(3) 0.2567(3) 0.071(4) Uiso 1 1 d . . .
O40 O 0.5316(3) 0.1514(3) 0.2862(3) 0.069(4) Uiso 1 1 d . . .
O41 O 0.4151(3) -0.0432(3) 0.2319(3) 0.057(4) Uiso 1 1 d . . .
O42 O 0.6934(3) 0.1056(3) 0.3153(3) 0.073(4) Uiso 1 1 d . . .
O43 O 0.4219(3) -0.1663(3) 0.2910(3) 0.063(4) Uiso 1 1 d . . .
O44 O 0.2493(3) -0.0598(3) 0.3883(3) 0.083(5) Uiso 1 1 d . . .
O45 O 0.2569(3) 0.0341(3) 0.3359(3) 0.061(4) Uiso 1 1 d . . .
O46 O 0.2932(3) -0.1007(3) 0.3387(3) 0.063(4) Uiso 1 1 d . . .
O47 O 0.3510(3) 0.0677(3) 0.2862(3) 0.073(4) Uiso 1 1 d . . .
O48 O 0.2690(3) -0.2148(3) 0.4544(3) 0.077(5) Uiso 1 1 d . . .
O49 O 0.7820(3) 0.0387(4) 0.4928(3) 0.091(5) Uiso 1 1 d . . .
O50 O 0.3298(3) -0.1346(3) 0.3846(3) 0.066(4) Uiso 1 1 d . . .
O51 O 0.2643(3) -0.1098(3) 0.3903(3) 0.079(5) Uiso 1 1 d . . .
O52 O 0.2622(3) -0.1632(3) 0.3502(3) 0.079(5) Uiso 1 1 d . . .
O53 O 0.3327(3) 0.0092(3) 0.2918(3) 0.073(5) Uiso 1 1 d . . .
O54 O 0.4740(3) -0.2550(3) 0.3953(3) 0.070(4) Uiso 1 1 d . . .
O55 O 0.6286(3) 0.2116(3) 0.3764(3) 0.067(4) Uiso 1 1 d . . .
O56 O 0.7260(3) 0.1538(3) 0.3967(3) 0.068(4) Uiso 1 1 d . . .
O57 O 0.5554(3) 0.2652(3) 0.3755(3) 0.065(4) Uiso 1 1 d . . .
O58 O 0.3355(3) -0.1647(3) 0.4487(3) 0.065(4) Uiso 1 1 d . . .
O59 O 0.6713(4) 0.1797(3) 0.3783(3) 0.081(5) Uiso 1 1 d . . .
O60 O 0.3586(3) -0.1997(3) 0.2868(3) 0.079(5) Uiso 1 1 d . . .
O61 O 0.6502(3) 0.1508(3) 0.3304(3) 0.079(5) Uiso 1 1 d . . .
O62 O 0.4156(3) -0.2636(3) 0.4150(3) 0.073(4) Uiso 1 1 d . . .
O63 O 0.3894(3) -0.1566(3) 0.3480(3) 0.081(5) Uiso 1 1 d . . .
O64 O 0.5465(3) 0.2775(3) 0.4820(3) 0.065(4) Uiso 1 1 d . . .
O65 O 0.4734(4) -0.2285(3) 0.3429(3) 0.079(5) Uiso 1 1 d . . .
O66 O 0.2747(3) -0.1670(3) 0.4112(3) 0.089(5) Uiso 1 1 d . . .
O67 O 0.7218(3) 0.0953(3) 0.3310(3) 0.058(4) Uiso 1 1 d . . .
O68 O 0.7799(3) 0.1496(3) 0.4347(3) 0.091(5) Uiso 1 1 d . . .
O69 O 0.4309(3) -0.2653(3) 0.4777(3) 0.070(4) Uiso 1 1 d . . .
O70 O 0.2841(3) -0.0016(3) 0.3846(3) 0.063(4) Uiso 1 1 d . . .
O71 O 0.7481(3) 0.1266(3) 0.4878(3) 0.082(5) Uiso 1 1 d . . .
O72 O 0.7193(3) 0.1641(3) 0.3338(3) 0.079(5) Uiso 1 1 d . . .
O73 O 0.2717(3) -0.1475(3) 0.4714(3) 0.082(5) Uiso 1 1 d . . .
O74 O 0.5312(3) 0.1073(3) 0.2572(3) 0.071(4) Uiso 1 1 d . . .
O75 O 0.3713(3) -0.0043(3) 0.2611(3) 0.073(5) Uiso 1 1 d . . .
O76 O 0.4240(3) -0.2769(3) 0.3538(3) 0.085(5) Uiso 1 1 d . . .
O77 O 0.3662(3) -0.2855(3) 0.4558(3) 0.091(5) Uiso 1 1 d . . .
O78 O 0.5966(3) 0.2568(3) 0.4516(3) 0.075(5) Uiso 1 1 d . . .
O79 O 0.3961(3) -0.2108(3) 0.4496(3) 0.084(5) Uiso 1 1 d . . .
O80 O 0.3062(3) -0.1869(3) 0.5048(3) 0.083(5) Uiso 1 1 d . . .
O81 O 0.6769(3) 0.1112(3) 0.3783(3) 0.062(4) Uiso 1 1 d . . .
O82 O 0.7145(3) 0.1642(3) 0.4554(3) 0.074(4) Uiso 1 1 d . . .
O83 O 0.7811(3) -0.0057(3) 0.4036(3) 0.082(5) Uiso 1 1 d . . .
O84 O 0.6071(3) 0.1817(3) 0.3302(3) 0.072(4) Uiso 1 1 d . . .
O85 O 0.2173(4) -0.0229(3) 0.3423(3) 0.092(5) Uiso 1 1 d . . .
O86 O 0.7388(3) 0.0335(3) 0.4405(3) 0.069(4) Uiso 1 1 d . . .
O87 O 0.2821(3) 0.0568(3) 0.2791(3) 0.080(5) Uiso 1 1 d . . .
O88 O 0.5000 0.0893(4) 0.2003(4) 0.081(7) Uiso 1 2 d S . .
O89 O 0.7816(4) -0.0158(3) 0.4645(3) 0.094(5) Uiso 1 1 d . . .
O90 O 0.4000(3) 0.0152(3) 0.2025(3) 0.070(4) Uiso 1 1 d . . .
O91 O 0.6014(4) 0.2511(3) 0.3301(3) 0.094(5) Uiso 1 1 d . . .
O92 O 0.5592(3) 0.1972(3) 0.3757(3) 0.074(4) Uiso 1 1 d . . .
O93 O 0.5355(3) 0.2337(3) 0.4301(3) 0.067(4) Uiso 1 1 d . . .
O94 O 0.8230(4) 0.0346(3) 0.4384(3) 0.096(5) Uiso 1 1 d . . .
C1 C 0.4242(5) -0.1409(5) 0.2777(4) 0.054(6) Uiso 1 1 d . . .
C2 C 0.5185(5) 0.1272(5) 0.2702(5) 0.082(8) Uiso 1 1 d . . .
C3 C 0.2811(6) -0.0774(6) 0.3491(5) 0.092(9) Uiso 1 1 d . . .
C4 C 0.5000 -0.2351(8) 0.3549(8) 0.095(12) Uiso 1 2 d S . .
C5 C 0.6457(6) 0.1881(5) 0.3689(5) 0.068(7) Uiso 1 1 d . . .
C6 C 0.3953(6) -0.1203(6) 0.2746(5) 0.083(8) Uiso 1 1 d . . .
C7 C 0.6323(5) 0.1732(5) 0.3402(4) 0.059(7) Uiso 1 1 d . . .
C8 C 0.3666(6) 0.0490(5) 0.2722(5) 0.079(8) Uiso 1 1 d . . .
C9 C 0.5000 -0.2521(6) 0.3853(6) 0.059(9) Uiso 1 2 d S . .
C10 C 0.7314(6) 0.1464(5) 0.5010(5) 0.079(8) Uiso 1 1 d . . .
C11 C 0.3547(6) 0.0131(5) 0.2762(5) 0.072(7) Uiso 1 1 d . . .
C12 C 0.5685(6) 0.2661(5) 0.4946(6) 0.084(8) Uiso 1 1 d . . .
C13 C 0.4032(7) -0.2548(6) 0.5200(6) 0.103(9) Uiso 1 1 d . . .
C14 C 0.2621(6) -0.0835(7) 0.3811(6) 0.103(9) Uiso 1 1 d . . .
C15 C 0.2884(5) -0.1672(5) 0.5164(5) 0.069(7) Uiso 1 1 d . . .
C16 C 0.7820(5) -0.0132(5) 0.4918(6) 0.088(8) Uiso 1 1 d . . .

loop_
 _atom_site_aniso_label
 _atom_site_aniso_U_11
 _atom_site_aniso_U_22
 _atom_site_aniso_U_33
 _atom_site_aniso_U_23
 _atom_site_aniso_U_13
 _atom_site_aniso_U_12
U1 0.0694(7) 0.0492(6) 0.0466(6) 0.0004(5) -0.0083(5) 0.0045(5)
U2 0.0671(7) 0.0462(6) 0.0382(6) -0.0039(4) -0.0044(5) -0.0011(5)
U3 0.0805(10) 0.0472(8) 0.0454(8) 0.0012(7) 0.000 0.000
U4 0.0741(7) 0.0638(7) 0.0532(6) -0.0009(5) -0.0042(5) 0.0076(6)
U5 0.0903(11) 0.0372(8) 0.0442(8) 0.0074(6) 0.000 0.000
U6 0.0858(8) 0.0578(6) 0.0578(6) 0.0015(5) 0.0136(6) -0.0108(6)
U7 0.0820(8) 0.0517(6) 0.0454(6) -0.0068(5) 0.0045(5) -0.0083(5)
U8 0.0729(7) 0.0552(6) 0.0603(6) -0.0029(5) 0.0011(5) -0.0149(5)
U9 0.0880(8) 0.0559(6) 0.0425(6) -0.0082(5) 0.0026(5) -0.0086(6) U10 0.0734(7) 
0.0688(7) 0.0512(6) 0.0029(5) -0.0044(5) 0.0071(6)
U11 0.0955(8) 0.0465(6) 0.0548(6) -0.0004(5) -0.0015(6) -0.0025(6)
U12 0.0908(8) 0.0440(6) 0.0510(6) 0.0032(5) -0.0013(5) -0.0037(6)
U13 0.0849(8) 0.0725(7) 0.0520(6) 0.0000(5) 0.0046(5) -0.0144(6)
U14 0.0937(9) 0.0809(8) 0.0564(7) -0.0004(5) 0.0158(6) -0.0145(6)
U15 0.0831(8) 0.0654(7) 0.0568(6) -0.0023(5) 0.0026(6) -0.0181(6)
U16 0.0886(9) 0.0764(7) 0.0659(7) 0.0026(6) -0.0089(6) -0.0100(6)
K1 0.051(5) 0.065(5) 0.084(6) -0.013(4) 0.000 0.000
K2 0.084(6) 0.072(6) 0.074(5) -0.012(4) 0.000 0.000
K3 0.120(5) 0.065(4) 0.091(4) -0.012(3) -0.013(4) 0.006(4)
K4 0.099(5) 0.084(4) 0.073(4) 0.001(3) 0.006(3) 0.002(4)

_geom_special_details
;
 All esds (except the esd in the dihedral angle between two l.s. planes)  are 
estimated using the full covariance matrix.  The cell esds are taken  into 
account individually in the estimation of esds in distances, angles  and 
torsion angles; correlations between esds in cell parameters are only  used 
when they are defined by crystal symmetry.  An approximate (isotropic)  
treatment of cell esds is used for estimating esds involving l.s. planes.
;

loop_
 _geom_bond_atom_site_label_1
 _geom_bond_atom_site_label_2
 _geom_bond_distance
 _geom_bond_site_symmetry_2
 _geom_bond_publ_flag
U1 O90 1.783(13) . ?
U1 O31 1.784(12) . ?
U1 O22 2.283(12) . ?
U1 O7 2.308(12) . ?
U1 O41 2.333(12) . ?
U1 O9 2.347(11) . ?
U1 O39 2.456(13) . ?
U1 O75 2.472(14) . ?
U1 K1 4.167(4) . ?
U2 O34 1.786(12) . ?
U2 O14 1.810(12) . ?
U2 O41 2.290(12) . ?
U2 O9 2.340(11) . ?
U2 O18 2.343(7) . ?
U2 O30 2.345(8) . ?
U2 O26 2.437(13) . ?
U2 O1 2.489(12) . ?
U2 K1 4.147(6) . ?
U3 O3 1.801(16) . ?
U3 O88 1.847(19) . ?
U3 O7 2.348(12) . ?
U3 O7 2.348(12) 12_655 ?
U3 O22 2.362(12) . ?
U3 O22 2.362(13) 12_655 ?
U3 O74 2.410(13) . ?
U3 O74 2.410(13) 12_655 ?
U3 K1 4.229(7) . ?
U4 O87 1.782(14) . ?
U4 O23 1.793(13) . ?
U4 O67 2.298(12) 12_655 ?
U4 O15 2.321(13) . ?
U4 O42 2.326(13) 12_655 ?
U4 O45 2.365(12) . ?
U4 O53 2.467(14) . ?
U4 O47 2.473(14) . ?
U4 K3 4.168(5) 12_655 ?
U5 O6 1.843(17) . ?
U5 O24 1.849(17) . ?
U5 O29 2.360(13) 12_655 ?
U5 O29 2.360(13) . ?
U5 O17 2.378(11) . ?
U5 O17 2.378(11) 12_655 ?
U5 O40 2.486(13) 12_655 ?
U5 O40 2.486(13) . ?
U5 K2 4.186(7) . ?
U6 O52 1.738(14) . ?
U6 O50 1.773(13) . ?
U6 O13 2.301(12) . ?
U6 O66 2.306(14) . ?
U6 O12 2.336(12) . ?
U6 O20 2.348(11) . ?
U6 O51 2.444(14) . ?
U6 O46 2.527(13) . ?
U6 K4 4.167(6) . ?
U7 O60 1.799(13) . ?
U7 O63 1.812(14) . ?
U7 O32 2.295(13) . ?
U7 O20 2.308(11) . ?
U7 O10 2.342(12) . ?
U7 O13 2.360(13) . ?
U7 O43 2.457(13) . ?
U7 O37 2.502(13) . ?
U7 K4 4.160(5) . ?
U8 O72 1.782(14) . ?
U8 O81 1.784(12) . ?
U8 O28 2.290(13) . ?
U8 O56 2.302(13) . ?
U8 O42 2.318(13) . ?
U8 O67 2.352(12) . ?
U8 O59 2.429(14) . ?
U8 O61 2.464(14) . ?
U8 K3 4.260(5) . ?
U9 O76 1.762(14) . ?
U9 O38 1.795(12) . ?
U9 O62 2.304(13) . ?
U9 O21 2.306(12) . ?
U9 O10 2.328(12) . ?
U9 O32 2.369(12) . ?
U9 O54 2.452(14) . ?
U9 O65 2.464(14) . ?
U9 K4 4.121(5) . ?
U10 O70 1.754(13) . ?
U10 O85 1.807(15) . ?
U10 O83 2.293(14) 12_655 ?
U10 O25 2.308(13) 12_655 ?
U10 O15 2.326(13) . ?
U10 O45 2.345(12) . ?
U10 O44 2.414(15) . ?
U10 O4 2.472(13) . ?
U10 K3 4.170(5) 12_655 ?
U11 O33 1.791(12) . ?
U11 O93 1.801(13) . ?
U11 O5 2.321(8) . ?
U11 O19 2.337(12) . ?
U11 O2 2.342(8) . ?
U11 O57 2.367(12) . ?
U11 O78 2.437(14) . ?
U11 O64 2.540(13) . ?
U11 K2 4.254(6) . ?
U12 O91 1.797(15) . ?
U12 O92 1.822(13) . ?
U12 O29 2.291(12) . ?
U12 O57 2.300(12) . ?
U12 O17 2.304(11) . ?
U12 O19 2.354(12) . ?
U12 O84 2.431(14) . ?
U12 O55 2.438(13) . ?
U12 K2 4.213(4) . ?
U13 O77 1.733(15) . ?
U13 O79 1.774(14) . ?
U13 O16 2.264(13) . ?
U13 O35 2.296(14) . ?
U13 O21 2.332(11) . ?
U13 O62 2.336(13) . ?
U13 O36 2.458(14) . ?
U13 O69 2.531(13) . ?
U13 K4 4.166(5) . ?
U14 O48 1.767(14) . ?
U14 O58 1.823(13) . ?
U14 O35 2.343(13) . ?
U14 O16 2.351(13) . ?
U14 O12 2.364(12) . ?
U14 O66 2.391(14) . ?
U14 O80 2.478(14) . ?
U14 O73 2.484(14) . ?
U14 K4 4.098(5) . ?
U15 O68 1.731(15) . ?
U15 O27 1.797(13) . ?
U15 O8 2.315(13) . ?
U15 O56 2.333(13) . ?
U15 O28 2.351(12) . ?
U15 O11 2.382(12) . ?
U15 O82 2.450(14) . ?
U15 O71 2.451(14) . ?
U15 K3 4.187(5) . ?
U16 O94 1.789(16) . ?
U16 O86 1.800(13) . ?
U16 O11 2.287(12) . ?
U16 O8 2.310(13) . ?
U16 O25 2.324(13) . ?
U16 O83 2.365(14) . ?
U16 O49 2.489(15) . ?
U16 O89 2.494(15) . ?
U16 K3 4.228(6) . ?
K1 O34 2.765(14) . ?
K1 O34 2.765(14) 12_655 ?
K1 O31 2.801(12) . ?
K1 O31 2.801(12) 12_655 ?
K1 O3 2.812(18) . ?
K1 U2 4.147(6) 12_655 ?
K1 U1 4.167(4) 12_655 ?
K2 O24 2.724(18) . ?
K2 O92 2.729(14) . ?
K2 O92 2.729(14) 12_655 ?
K2 O93 2.749(14) . ?
K2 O93 2.749(14) 12_655 ?
K2 U12 4.213(4) 12_655 ?
K2 U11 4.254(6) 12_655 ?
K3 O27 2.688(14) . ?
K3 O23 2.739(13) 12_655 ?
K3 O70 2.767(13) 12_655 ?
K3 O86 2.774(14) . ?
K3 O81 2.841(13) . ?
K3 U4 4.168(5) 12_655 ?
K3 U10 4.170(5) 12_655 ?
K4 O58 2.737(14) . ?
K4 O38 2.762(14) . ?
K4 O63 2.763(14) . ?
K4 O50 2.813(14) . ?
K4 O79 2.823(15) . ?
O1 C1 1.28(2) . ?
O2 O5 1.49(2) . ?
O2 U11 2.342(8) 12_655 ?
O4 C3 1.20(2) . ?
O5 U11 2.321(8) 12_655 ?
O7 O22 1.449(15) . ?
O8 O11 1.431(16) . ?
O9 O41 1.506(15) . ?
O10 O32 1.480(15) . ?
O12 O66 1.539(17) . ?
O13 O20 1.475(15) . ?
O15 O45 1.535(16) . ?
O16 O35 1.467(16) . ?
O17 O29 1.502(15) . ?
O18 O30 1.48(2) . ?
O18 U2 2.343(7) 12_655 ?
O19 O57 1.549(16) . ?
O21 O62 1.530(16) . ?
O23 K3 2.739(13) 12_655 ?
O25 O83 1.490(16) . ?
O25 U10 2.308(13) 12_655 ?
O26 C6 1.23(2) . ?
O28 O56 1.508(16) . ?
O30 U2 2.345(8) 12_655 ?
O36 C13 1.25(3) . ?
O37 C6 1.24(2) . ?
O39 C8 1.25(2) . ?
O40 C2 1.40(2) . ?
O42 O67 1.475(16) . ?
O42 U4 2.326(13) 12_655 ?
O43 C1 1.27(2) . ?
O44 C14 1.21(3) . ?
O46 C3 1.24(2) . ?
O47 C8 1.23(2) . ?
O49 C16 1.32(2) 4_556 ?
O51 C14 1.23(3) . ?
O53 C11 1.19(2) . ?
O54 C9 1.202(15) . ?
O55 C5 1.30(2) . ?
O59 C5 1.23(2) . ?
O61 C7 1.32(2) . ?
O64 C12 1.21(2) . ?
O65 C4 1.292(19) . ?
O67 U4 2.298(12) 12_655 ?
O69 C12 1.27(2) 9_656 ?
O70 K3 2.767(13) 12_655 ?
O71 C10 1.27(2) . ?
O73 C10 1.26(2) 9_656 ?
O74 C2 1.18(2) . ?
O75 C11 1.24(2) . ?
O78 C13 1.30(3) 9_656 ?
O80 C15 1.26(2) . ?
O82 C15 1.30(2) 9_656 ?
O83 U10 2.293(14) 12_655 ?
O84 C7 1.22(2) . ?
O89 C16 1.25(2) . ?
C1 C6 1.53(3) . ?
C2 C2 1.58(4) 12_655 ?
C3 C14 1.69(3) . ?
C4 O65 1.292(19) 12_655 ?
C4 C9 1.58(4) . ?
C5 C7 1.57(3) . ?
C8 C11 1.65(3) . ?
C9 O54 1.202(15) 12_655 ?
C10 O73 1.26(2) 9_656 ?
C10 C15 1.47(3) 9_656 ?
C12 O69 1.27(2) 9_656 ?
C12 C13 1.46(3) 9_656 ?
C13 O78 1.30(3) 9_656 ?
C13 C12 1.46(3) 9_656 ?
C15 O82 1.30(2) 9_656 ?
C15 C10 1.47(3) 9_656 ?
C16 O49 1.32(2) 4_556 ?
C16 C16 1.37(4) 4_556 ?

loop_
 _geom_angle_atom_site_label_1
 _geom_angle_atom_site_label_2
 _geom_angle_atom_site_label_3
 _geom_angle
 _geom_angle_site_symmetry_1
 _geom_angle_site_symmetry_3
 _geom_angle_publ_flag
O90 U1 O31 176.2(6) . . ?
O90 U1 O22 89.8(5) . . ?
O31 U1 O22 91.7(5) . . ?
O90 U1 O7 90.2(5) . . ?
O31 U1 O7 93.1(5) . . ?
O22 U1 O7 36.8(4) . . ?
O90 U1 O41 90.3(5) . . ?
O31 U1 O41 89.8(5) . . ?
O22 U1 O41 153.3(4) . . ?
O7 U1 O41 116.6(4) . . ?
O90 U1 O9 90.9(5) . . ?
O31 U1 O9 91.5(5) . . ?
O22 U1 O9 115.8(4) . . ?
O7 U1 O9 79.0(4) . . ?
O41 U1 O9 37.6(4) . . ?
O90 U1 O39 88.4(5) . . ?
O31 U1 O39 89.0(5) . . ?
O22 U1 O39 69.5(5) . . ?
O7 U1 O39 106.3(5) . . ?
O41 U1 O39 137.2(5) . . ?
O9 U1 O39 174.7(4) . . ?
O90 U1 O75 90.4(5) . . ?
O31 U1 O75 86.0(5) . . ?
O22 U1 O75 133.9(5) . . ?
O7 U1 O75 170.7(5) . . ?
O41 U1 O75 72.7(4) . . ?
O9 U1 O75 110.3(4) . . ?
O39 U1 O75 64.5(5) . . ?
O90 U1 K1 152.4(4) . . ?
O31 U1 K1 31.3(4) . . ?
O22 U1 K1 85.0(3) . . ?
O7 U1 K1 69.7(3) . . ?
O41 U1 K1 82.6(3) . . ?
O9 U1 K1 67.4(3) . . ?
O39 U1 K1 114.8(3) . . ?
O75 U1 K1 112.6(3) . . ?
O34 U2 O14 178.3(6) . . ?
O34 U2 O41 89.8(5) . . ?
O14 U2 O41 90.6(5) . . ?
O34 U2 O9 91.0(5) . . ?
O14 U2 O9 90.3(5) . . ?
O41 U2 O9 37.9(4) . . ?
O34 U2 O18 91.8(6) . . ?
O14 U2 O18 88.7(6) . . ?
O41 U2 O18 150.6(5) . . ?
O9 U2 O18 112.7(5) . . ?
O34 U2 O30 91.0(6) . . ?
O14 U2 O30 90.4(6) . . ?
O41 U2 O30 113.8(5) . . ?
O9 U2 O30 75.8(5) . . ?
O18 U2 O30 36.9(5) . . ?
O34 U2 O26 89.9(5) . . ?
O14 U2 O26 88.7(5) . . ?
O41 U2 O26 71.0(4) . . ?
O9 U2 O26 109.0(4) . . ?
O18 U2 O26 138.3(5) . . ?
O30 U2 O26 175.1(5) . . ?
O34 U2 O1 89.1(5) . . ?
O14 U2 O1 89.4(5) . . ?
O41 U2 O1 136.5(4) . . ?
O9 U2 O1 174.5(4) . . ?
O18 U2 O1 72.8(5) . . ?
O30 U2 O1 109.7(5) . . ?
O26 U2 O1 65.5(4) . . ?
O34 U2 K1 30.7(4) . . ?
O14 U2 K1 151.1(4) . . ?
O41 U2 K1 83.5(3) . . ?
O9 U2 K1 67.9(3) . . ?
O18 U2 K1 83.1(4) . . ?
O30 U2 K1 66.6(4) . . ?
O26 U2 K1 115.7(3) . . ?
O1 U2 K1 114.1(3) . . ?
O3 U3 O88 177.2(8) . . ?
O3 U3 O7 90.9(5) . . ?
O88 U3 O7 91.3(5) . . ?
O3 U3 O7 90.9(5) . 12_655 ?
O88 U3 O7 91.3(5) . 12_655 ?
O7 U3 O7 78.4(6) . 12_655 ?
O3 U3 O22 90.1(3) . . ?
O88 U3 O22 90.7(3) . . ?
O7 U3 O22 35.8(4) . . ?
O7 U3 O22 114.3(5) 12_655 . ?
O3 U3 O22 90.1(3) . 12_655 ?
O88 U3 O22 90.7(3) . 12_655 ?
O7 U3 O22 114.3(5) . 12_655 ?
O7 U3 O22 35.8(4) 12_655 12_655 ?
O22 U3 O22 150.1(6) . 12_655 ?
O3 U3 O74 88.3(5) . . ?
O88 U3 O74 89.3(6) . . ?
O7 U3 O74 174.2(5) . . ?
O7 U3 O74 107.4(5) 12_655 . ?
O22 U3 O74 138.4(5) . . ?
O22 U3 O74 71.5(5) 12_655 . ?
O3 U3 O74 88.3(5) . 12_655 ?
O88 U3 O74 89.3(6) . 12_655 ?
O7 U3 O74 107.4(5) . 12_655 ?
O7 U3 O74 174.2(5) 12_655 12_655 ?
O22 U3 O74 71.5(5) . 12_655 ?
O22 U3 O74 138.4(5) 12_655 12_655 ?
O74 U3 O74 66.8(7) . 12_655 ?
O3 U3 K1 29.8(5) . . ?
O88 U3 K1 153.0(6) . . ?
O7 U3 K1 68.2(3) . . ?
O7 U3 K1 68.2(3) 12_655 . ?
O22 U3 K1 82.7(3) . . ?
O22 U3 K1 82.7(3) 12_655 . ?
O74 U3 K1 112.9(3) . . ?
O74 U3 K1 112.9(3) 12_655 . ?
O87 U4 O23 178.2(6) . . ?
O87 U4 O67 89.9(5) . 12_655 ?
O23 U4 O67 91.4(5) . 12_655 ?
O87 U4 O15 88.8(5) . . ?
O23 U4 O15 92.0(5) . . ?
O67 U4 O15 112.9(5) 12_655 . ?
O87 U4 O42 88.3(5) . 12_655 ?
O23 U4 O42 91.9(5) . 12_655 ?
O67 U4 O42 37.2(4) 12_655 12_655 ?
O15 U4 O42 149.9(5) . 12_655 ?
O87 U4 O45 90.5(5) . . ?
O23 U4 O45 91.1(5) . . ?
O67 U4 O45 74.7(4) 12_655 . ?
O15 U4 O45 38.2(4) . . ?
O42 U4 O45 111.9(5) 12_655 . ?
O87 U4 O53 90.2(5) . . ?
O23 U4 O53 88.5(5) . . ?
O67 U4 O53 175.4(5) 12_655 . ?
O15 U4 O53 71.7(5) . . ?
O42 U4 O53 138.2(5) 12_655 . ?
O45 U4 O53 109.9(5) . . ?
O87 U4 O47 87.8(5) . . ?
O23 U4 O47 90.5(5) . . ?
O67 U4 O47 109.7(5) 12_655 . ?
O15 U4 O47 137.2(5) . . ?
O42 U4 O47 72.5(5) 12_655 . ?
O45 U4 O47 175.2(5) . . ?
O53 U4 O47 65.7(5) . . ?
O87 U4 K3 152.9(4) . 12_655 ?
O23 U4 K3 28.9(4) . 12_655 ?
O67 U4 K3 70.2(3) 12_655 12_655 ?
O15 U4 K3 82.8(3) . 12_655 ?
O42 U4 K3 86.4(3) 12_655 12_655 ?
O45 U4 K3 67.1(3) . 12_655 ?
O53 U4 K3 111.2(3) . 12_655 ?
O47 U4 K3 115.6(3) . 12_655 ?
O6 U5 O24 176.1(8) . . ?
O6 U5 O29 89.2(3) . 12_655 ?
O24 U5 O29 91.8(3) . 12_655 ?
O6 U5 O29 89.2(3) . . ?
O24 U5 O29 91.8(3) . . ?
O29 U5 O29 151.1(6) 12_655 . ?
O6 U5 O17 90.2(5) . . ?
O24 U5 O17 92.8(5) . . ?
O29 U5 O17 114.2(5) 12_655 . ?
O29 U5 O17 37.0(4) . . ?
O6 U5 O17 90.2(5) . 12_655 ?
O24 U5 O17 92.8(5) . 12_655 ?
O29 U5 O17 37.0(4) 12_655 12_655 ?
O29 U5 O17 114.2(5) . 12_655 ?
O17 U5 O17 77.3(6) . 12_655 ?
O6 U5 O40 89.9(5) . 12_655 ?
O24 U5 O40 86.8(5) . 12_655 ?
O29 U5 O40 71.6(4) 12_655 12_655 ?
O29 U5 O40 137.2(4) . 12_655 ?
O17 U5 O40 174.1(4) . 12_655 ?
O17 U5 O40 108.6(4) 12_655 12_655 ?
O6 U5 O40 89.9(5) . . ?
O24 U5 O40 86.8(5) . . ?
O29 U5 O40 137.2(4) 12_655 . ?
O29 U5 O40 71.6(4) . . ?
O17 U5 O40 108.6(4) . . ?
O17 U5 O40 174.1(4) 12_655 . ?
O40 U5 O40 65.6(6) 12_655 . ?
O6 U5 K2 154.8(5) . . ?
O24 U5 K2 29.1(5) . . ?
O29 U5 K2 84.6(3) 12_655 . ?
O29 U5 K2 84.6(3) . . ?
O17 U5 K2 70.4(3) . . ?
O17 U5 K2 70.4(3) 12_655 . ?
O40 U5 K2 111.1(3) 12_655 . ?
O40 U5 K2 111.1(3) . . ?
O52 U6 O50 176.6(6) . . ?
O52 U6 O13 88.7(5) . . ?
O50 U6 O13 91.2(5) . . ?
O52 U6 O66 88.1(6) . . ?
O50 U6 O66 93.6(5) . . ?
O13 U6 O66 152.5(5) . . ?
O52 U6 O12 91.9(5) . . ?
O50 U6 O12 91.2(5) . . ?
O13 U6 O12 114.2(4) . . ?
O66 U6 O12 38.7(4) . . ?
O52 U6 O20 90.8(5) . . ?
O50 U6 O20 91.2(5) . . ?
O13 U6 O20 37.0(4) . . ?
O66 U6 O20 115.7(5) . . ?
O12 U6 O20 77.2(4) . . ?
O52 U6 O51 88.5(6) . . ?
O50 U6 O51 89.3(5) . . ?
O13 U6 O51 137.8(5) . . ?
O66 U6 O51 69.4(5) . . ?
O12 U6 O51 108.0(5) . . ?
O20 U6 O51 174.8(4) . . ?
O52 U6 O46 90.1(5) . . ?
O50 U6 O46 86.6(5) . . ?
O13 U6 O46 72.6(4) . . ?
O66 U6 O46 134.8(5) . . ?
O12 U6 O46 173.0(4) . . ?
O20 U6 O46 109.5(4) . . ?
O51 U6 O46 65.3(5) . . ?
O52 U6 K4 151.7(4) . . ?
O50 U6 K4 31.6(4) . . ?
O13 U6 K4 84.7(3) . . ?
O66 U6 K4 85.2(4) . . ?
O12 U6 K4 66.2(3) . . ?
O20 U6 K4 67.8(3) . . ?
O51 U6 K4 114.5(3) . . ?
O46 U6 K4 113.8(3) . . ?
O60 U7 O63 177.7(6) . . ?
O60 U7 O32 90.1(5) . . ?
O63 U7 O32 90.4(5) . . ?
O60 U7 O20 89.9(5) . . ?
O63 U7 O20 92.0(5) . . ?
O32 U7 O20 114.1(4) . . ?
O60 U7 O10 90.8(5) . . ?
O63 U7 O10 91.0(5) . . ?
O32 U7 O10 37.2(4) . . ?
O20 U7 O10 76.9(4) . . ?
O60 U7 O13 88.7(5) . . ?
O63 U7 O13 92.0(5) . . ?
O32 U7 O13 150.9(5) . . ?
O20 U7 O13 36.8(4) . . ?
O10 U7 O13 113.7(4) . . ?
O60 U7 O43 91.0(5) . . ?
O63 U7 O43 87.0(5) . . ?
O32 U7 O43 71.0(4) . . ?
O20 U7 O43 174.8(4) . . ?
O10 U7 O43 108.2(4) . . ?
O13 U7 O43 138.1(4) . . ?
O60 U7 O37 89.8(5) . . ?
O63 U7 O37 88.2(5) . . ?
O32 U7 O37 135.0(5) . . ?
O20 U7 O37 110.9(4) . . ?
O10 U7 O37 172.2(5) . . ?
O13 U7 O37 74.1(4) . . ?
O43 U7 O37 64.0(4) . . ?
O60 U7 K4 151.5(4) . . ?
O63 U7 K4 30.8(4) . . ?
O32 U7 K4 83.1(3) . . ?
O20 U7 K4 68.2(3) . . ?
O10 U7 K4 67.3(3) . . ?
O13 U7 K4 84.2(3) . . ?
O43 U7 K4 112.5(3) . . ?
O37 U7 K4 114.4(3) . . ?
O72 U8 O81 176.7(6) . . ?
O72 U8 O28 91.5(5) . . ?
O81 U8 O28 91.1(5) . . ?
O72 U8 O56 90.4(5) . . ?
O81 U8 O56 90.4(5) . . ?
O28 U8 O56 38.3(4) . . ?
O72 U8 O42 89.0(5) . . ?
O81 U8 O42 91.8(5) . . ?
O28 U8 O42 114.1(5) . . ?
O56 U8 O42 152.4(5) . . ?
O72 U8 O67 92.0(5) . . ?
O81 U8 O67 90.6(5) . . ?
O28 U8 O67 77.3(4) . . ?
O56 U8 O67 115.7(5) . . ?
O42 U8 O67 36.8(4) . . ?
O72 U8 O59 88.0(5) . . ?
O81 U8 O59 89.3(5) . . ?
O28 U8 O59 108.4(5) . . ?
O56 U8 O59 70.1(5) . . ?
O42 U8 O59 137.5(5) . . ?
O67 U8 O59 174.2(5) . . ?
O72 U8 O61 88.6(5) . . ?
O81 U8 O61 88.6(5) . . ?
O28 U8 O61 174.8(5) . . ?
O56 U8 O61 136.5(5) . . ?
O42 U8 O61 71.1(5) . . ?
O67 U8 O61 107.8(5) . . ?
O59 U8 O61 66.4(5) . . ?
O72 U8 K3 154.1(4) . . ?
O81 U8 K3 29.3(4) . . ?
O28 U8 K3 68.8(3) . . ?
O56 U8 K3 84.3(3) . . ?
O42 U8 K3 84.3(3) . . ?
O67 U8 K3 68.0(3) . . ?
O59 U8 K3 113.7(3) . . ?
O61 U8 K3 112.6(3) . . ?
O76 U9 O38 176.1(6) . . ?
O76 U9 O62 89.0(5) . . ?
O38 U9 O62 92.4(5) . . ?
O76 U9 O21 91.0(5) . . ?
O38 U9 O21 92.3(5) . . ?
O62 U9 O21 38.8(4) . . ?
O76 U9 O10 91.0(6) . . ?
O38 U9 O10 91.7(5) . . ?
O62 U9 O10 117.0(5) . . ?
O21 U9 O10 78.3(4) . . ?
O76 U9 O32 91.0(5) . . ?
O38 U9 O32 89.5(5) . . ?
O62 U9 O32 153.8(5) . . ?
O21 U9 O32 115.0(4) . . ?
O10 U9 O32 36.7(4) . . ?
O76 U9 O54 89.5(5) . . ?
O38 U9 O54 87.6(5) . . ?
O62 U9 O54 68.3(5) . . ?
O21 U9 O54 107.1(4) . . ?
O10 U9 O54 174.6(4) . . ?
O32 U9 O54 137.9(4) . . ?
O76 U9 O65 89.6(6) . . ?
O38 U9 O65 86.8(5) . . ?
O62 U9 O65 133.7(5) . . ?
O21 U9 O65 172.4(4) . . ?
O10 U9 O65 109.2(4) . . ?
O32 U9 O65 72.5(4) . . ?
O54 U9 O65 65.4(4) . . ?
O76 U9 K4 152.1(5) . . ?
O38 U9 K4 31.8(4) . . ?
O62 U9 K4 84.7(3) . . ?
O21 U9 K4 67.4(3) . . ?
O10 U9 K4 68.2(3) . . ?
O32 U9 K4 83.2(3) . . ?
O54 U9 K4 113.0(3) . . ?
O65 U9 K4 114.2(3) . . ?
O70 U10 O85 176.7(6) . . ?
O70 U10 O83 91.2(5) . 12_655 ?
O85 U10 O83 89.0(6) . 12_655 ?
O70 U10 O25 91.4(5) . 12_655 ?
O85 U10 O25 90.7(6) . 12_655 ?
O83 U10 O25 37.8(4) 12_655 12_655 ?
O70 U10 O15 91.2(5) . . ?
O85 U10 O15 90.2(6) . . ?
O83 U10 O15 152.5(5) 12_655 . ?
O25 U10 O15 114.7(5) 12_655 . ?
O70 U10 O45 90.8(5) . . ?
O85 U10 O45 92.2(5) . . ?
O83 U10 O45 114.2(5) 12_655 . ?
O25 U10 O45 76.4(4) 12_655 . ?
O15 U10 O45 38.4(4) . . ?
O70 U10 O44 88.4(5) . . ?
O85 U10 O44 88.5(6) . . ?
O83 U10 O44 72.4(5) 12_655 . ?
O25 U10 O44 110.1(5) 12_655 . ?
O15 U10 O44 135.1(5) . . ?
O45 U10 O44 173.4(5) . . ?
O70 U10 O4 89.3(5) . . ?
O85 U10 O4 88.4(6) . . ?
O83 U10 O4 137.9(5) 12_655 . ?
O25 U10 O4 175.7(5) 12_655 . ?
O15 U10 O4 69.5(5) . . ?
O45 U10 O4 107.9(4) . . ?
O44 U10 O4 65.6(5) . . ?
O70 U10 K3 28.9(4) . 12_655 ?
O85 U10 K3 154.4(5) . 12_655 ?
O83 U10 K3 86.3(4) 12_655 12_655 ?
O25 U10 K3 70.4(3) 12_655 12_655 ?
O15 U10 K3 82.7(3) . 12_655 ?
O45 U10 K3 67.2(3) . 12_655 ?
O44 U10 K3 113.8(3) . 12_655 ?
O4 U10 K3 111.7(3) . 12_655 ?
O33 U11 O93 176.7(6) . . ?
O33 U11 O5 90.3(6) . . ?
O93 U11 O5 91.4(6) . . ?
O33 U11 O19 88.5(5) . . ?
O93 U11 O19 91.3(5) . . ?
O5 U11 O19 153.6(5) . . ?
O33 U11 O2 91.6(5) . . ?
O93 U11 O2 91.4(6) . . ?
O5 U11 O2 37.3(5) . . ?
O19 U11 O2 116.4(5) . . ?
O33 U11 O57 92.2(5) . . ?
O93 U11 O57 89.7(5) . . ?
O5 U11 O57 115.3(5) . . ?
O19 U11 O57 38.4(4) . . ?
O2 U11 O57 78.0(5) . . ?
O33 U11 O78 89.7(5) . . ?
O93 U11 O78 87.1(5) . . ?
O5 U11 O78 135.9(5) . . ?
O19 U11 O78 70.5(4) . . ?
O2 U11 O78 173.1(5) . . ?
O57 U11 O78 108.7(5) . . ?
O33 U11 O64 89.2(5) . . ?
O93 U11 O64 88.6(5) . . ?
O5 U11 O64 70.2(5) . . ?
O19 U11 O64 136.1(4) . . ?
O2 U11 O64 107.5(5) . . ?
O57 U11 O64 174.3(5) . . ?
O78 U11 O64 65.7(5) . . ?
O33 U11 K2 157.2(4) . . ?
O93 U11 K2 25.9(4) . . ?
O5 U11 K2 86.1(4) . . ?
O19 U11 K2 84.9(3) . . ?
O2 U11 K2 72.0(4) . . ?
O57 U11 K2 69.3(3) . . ?
O78 U11 K2 108.5(3) . . ?
O64 U11 K2 110.5(3) . . ?
O91 U12 O92 176.6(7) . . ?
O91 U12 O29 90.6(6) . . ?
O92 U12 O29 91.7(5) . . ?
O91 U12 O57 89.9(6) . . ?
O92 U12 O57 91.4(5) . . ?
O29 U12 O57 115.0(5) . . ?
O91 U12 O17 91.5(5) . . ?
O92 U12 O17 91.9(5) . . ?
O29 U12 O17 38.2(4) . . ?
O57 U12 O17 76.8(4) . . ?
O91 U12 O19 88.0(5) . . ?
O92 U12 O19 91.1(5) . . ?
O29 U12 O19 153.8(4) . . ?
O57 U12 O19 38.9(4) . . ?
O17 U12 O19 115.7(4) . . ?
O91 U12 O84 90.4(6) . . ?
O92 U12 O84 88.1(5) . . ?
O29 U12 O84 68.7(5) . . ?
O57 U12 O84 176.3(5) . . ?
O17 U12 O84 106.9(4) . . ?
O19 U12 O84 137.5(5) . . ?
O91 U12 O55 87.3(6) . . ?
O92 U12 O55 89.3(5) . . ?
O29 U12 O55 134.4(5) . . ?
O57 U12 O55 110.6(5) . . ?
O17 U12 O55 172.5(4) . . ?
O19 U12 O55 71.7(4) . . ?
O84 U12 O55 65.8(5) . . ?
O91 U12 K2 155.5(5) . . ?
O92 U12 K2 27.5(4) . . ?
O29 U12 K2 84.8(3) . . ?
O57 U12 K2 70.5(3) . . ?
O17 U12 K2 70.2(3) . . ?
O19 U12 K2 85.7(3) . . ?
O84 U12 K2 110.1(3) . . ?
O55 U12 K2 112.9(3) . . ?
O77 U13 O79 177.9(7) . . ?
O77 U13 O16 88.8(6) . . ?
O79 U13 O16 91.8(6) . . ?
O77 U13 O35 87.4(6) . . ?
O79 U13 O35 92.0(6) . . ?
O16 U13 O35 37.5(4) . . ?
O77 U13 O21 91.9(5) . . ?
O79 U13 O21 90.1(5) . . ?
O16 U13 O21 77.0(4) . . ?
O35 U13 O21 114.5(5) . . ?
O77 U13 O62 92.4(6) . . ?
O79 U13 O62 89.1(5) . . ?
O16 U13 O62 115.2(5) . . ?
O35 U13 O62 152.8(5) . . ?
O21 U13 O62 38.3(4) . . ?
O77 U13 O36 88.4(6) . . ?
O79 U13 O36 89.5(5) . . ?
O16 U13 O36 106.6(5) . . ?
O35 U13 O36 69.1(5) . . ?
O21 U13 O36 176.4(5) . . ?
O62 U13 O36 138.1(5) . . ?
O77 U13 O69 89.7(6) . . ?
O79 U13 O69 89.4(5) . . ?
O16 U13 O69 170.7(5) . . ?
O35 U13 O69 133.3(5) . . ?
O21 U13 O69 112.2(4) . . ?
O62 U13 O69 74.0(5) . . ?
O36 U13 O69 64.2(5) . . ?
O77 U13 K4 149.6(5) . . ?
O79 U13 K4 32.0(5) . . ?
O16 U13 K4 66.5(3) . . ?
O35 U13 K4 83.3(3) . . ?
O21 U13 K4 66.3(3) . . ?
O62 U13 K4 83.3(3) . . ?
O36 U13 K4 114.7(3) . . ?
O69 U13 K4 117.5(3) . . ?
O48 U14 O58 176.5(6) . . ?
O48 U14 O35 88.9(5) . . ?
O58 U14 O35 92.8(5) . . ?
O48 U14 O16 90.7(5) . . ?
O58 U14 O16 92.5(5) . . ?
O35 U14 O16 36.4(4) . . ?
O48 U14 O12 89.7(5) . . ?
O58 U14 O12 92.5(5) . . ?
O35 U14 O12 112.7(5) . . ?
O16 U14 O12 76.4(4) . . ?
O48 U14 O66 86.2(6) . . ?
O58 U14 O66 93.9(5) . . ?
O35 U14 O66 150.0(5) . . ?
O16 U14 O66 114.0(5) . . ?
O12 U14 O66 37.8(4) . . ?
O48 U14 O80 90.2(5) . . ?
O58 U14 O80 87.4(5) . . ?
O35 U14 O80 70.7(5) . . ?
O16 U14 O80 107.1(5) . . ?
O12 U14 O80 176.6(5) . . ?
O66 U14 O80 138.8(5) . . ?
O48 U14 O73 89.6(5) . . ?
O58 U14 O73 87.1(5) . . ?
O35 U14 O73 137.2(5) . . ?
O16 U14 O73 173.6(5) . . ?
O12 U14 O73 110.0(5) . . ?
O66 U14 O73 72.4(5) . . ?
O80 U14 O73 66.6(5) . . ?
O48 U14 K4 151.1(4) . . ?
O58 U14 K4 32.3(4) . . ?
O35 U14 K4 84.4(3) . . ?
O16 U14 K4 67.5(3) . . ?
O12 U14 K4 67.4(3) . . ?
O66 U14 K4 85.8(4) . . ?
O80 U14 K4 113.7(3) . . ?
O73 U14 K4 114.2(3) . . ?
O68 U15 O27 176.1(6) . . ?
O68 U15 O8 88.9(6) . . ?
O27 U15 O8 91.0(5) . . ?
O68 U15 O56 89.2(6) . . ?
O27 U15 O56 92.7(5) . . ?
O8 U15 O56 151.4(5) . . ?
O68 U15 O28 93.0(6) . . ?
O27 U15 O28 90.6(5) . . ?
O8 U15 O28 114.2(5) . . ?
O56 U15 O28 37.6(4) . . ?
O68 U15 O11 92.0(6) . . ?
O27 U15 O11 90.2(5) . . ?
O8 U15 O11 35.4(4) . . ?
O56 U15 O11 116.2(4) . . ?
O28 U15 O11 78.7(4) . . ?
O68 U15 O82 90.5(6) . . ?
O27 U15 O82 87.0(5) . . ?
O8 U15 O82 138.1(5) . . ?
O56 U15 O82 70.4(5) . . ?
O28 U15 O82 107.7(5) . . ?
O11 U15 O82 173.0(4) . . ?
O68 U15 O71 88.1(6) . . ?
O27 U15 O71 88.2(5) . . ?
O8 U15 O71 73.2(5) . . ?
O56 U15 O71 135.2(5) . . ?
O28 U15 O71 172.6(5) . . ?
O11 U15 O71 108.6(5) . . ?
O82 U15 O71 64.9(5) . . ?
O68 U15 K3 157.8(5) . . ?
O27 U15 K3 25.9(4) . . ?
O8 U15 K3 85.5(3) . . ?
O56 U15 K3 85.6(3) . . ?
O28 U15 K3 70.0(3) . . ?
O11 U15 K3 71.2(3) . . ?
O82 U15 K3 107.9(3) . . ?
O71 U15 K3 110.6(3) . . ?
O94 U16 O86 176.7(6) . . ?
O94 U16 O11 90.1(6) . . ?
O86 U16 O11 92.1(5) . . ?
O94 U16 O8 89.4(6) . . ?
O86 U16 O8 91.0(5) . . ?
O11 U16 O8 36.3(4) . . ?
O94 U16 O25 91.9(6) . . ?
O86 U16 O25 90.9(5) . . ?
O11 U16 O25 78.2(4) . . ?
O8 U16 O25 114.4(5) . . ?
O94 U16 O83 90.0(6) . . ?
O86 U16 O83 91.2(5) . . ?
O11 U16 O83 115.2(5) . . ?
O8 U16 O83 151.4(5) . . ?
O25 U16 O83 37.0(4) . . ?
O94 U16 O49 89.0(6) . . ?
O86 U16 O49 88.0(5) . . ?
O11 U16 O49 108.4(5) . . ?
O8 U16 O49 72.2(5) . . ?
O25 U16 O49 173.3(5) . . ?
O83 U16 O49 136.4(5) . . ?
O94 U16 O89 89.5(6) . . ?
O86 U16 O89 88.0(5) . . ?
O11 U16 O89 174.1(5) . . ?
O8 U16 O89 137.9(5) . . ?
O25 U16 O89 107.7(5) . . ?
O83 U16 O89 70.7(5) . . ?
O49 U16 O89 65.7(5) . . ?
O94 U16 K3 155.1(5) . . ?
O86 U16 K3 28.1(4) . . ?
O11 U16 K3 70.9(3) . . ?
O8 U16 K3 84.6(3) . . ?
O25 U16 K3 69.0(3) . . ?
O83 U16 K3 84.1(3) . . ?
O49 U16 K3 111.8(4) . . ?
O89 U16 K3 111.0(4) . . ?
O34 K1 O34 73.0(5) . 12_655 ?
O34 K1 O31 69.6(4) . . ?
O34 K1 O31 139.0(4) 12_655 . ?
O34 K1 O31 139.0(4) . 12_655 ?
O34 K1 O31 69.6(4) 12_655 12_655 ?
O31 K1 O31 136.1(6) . 12_655 ?
O34 K1 O3 136.3(3) . . ?
O34 K1 O3 136.3(3) 12_655 . ?
O31 K1 O3 69.7(3) . . ?
O31 K1 O3 69.7(3) 12_655 . ?
O34 K1 U2 19.2(3) . . ?
O34 K1 U2 70.4(3) 12_655 . ?
O31 K1 U2 68.7(3) . . ?
O31 K1 U2 126.0(3) 12_655 . ?
O3 K1 U2 125.1(3) . . ?
O34 K1 U2 70.4(3) . 12_655 ?
O34 K1 U2 19.2(3) 12_655 12_655 ?
O31 K1 U2 126.0(3) . 12_655 ?
O31 K1 U2 68.7(3) 12_655 12_655 ?
O3 K1 U2 125.1(3) . 12_655 ?
U2 K1 U2 61.64(9) . 12_655 ?
O34 K1 U1 68.3(3) . . ?
O34 K1 U1 126.5(3) 12_655 . ?
O31 K1 U1 19.3(3) . . ?
O31 K1 U1 124.1(3) 12_655 . ?
O3 K1 U1 68.06(19) . . ?
U2 K1 U1 60.76(6) . . ?
U2 K1 U1 110.01(15) 12_655 . ?
O34 K1 U1 126.5(3) . 12_655 ?
O34 K1 U1 68.3(3) 12_655 12_655 ?
O31 K1 U1 124.1(3) . 12_655 ?
O31 K1 U1 19.3(3) 12_655 12_655 ?
O3 K1 U1 68.06(19) . 12_655 ?
U2 K1 U1 110.01(15) . 12_655 ?
U2 K1 U1 60.76(6) 12_655 12_655 ?
U1 K1 U1 108.31(16) . 12_655 ?
O34 K1 U3 125.1(3) . . ?
O34 K1 U3 125.1(3) 12_655 . ?
O31 K1 U3 68.1(3) . . ?
O31 K1 U3 68.1(3) 12_655 . ?
O3 K1 U3 18.5(3) . . ?
U2 K1 U3 109.98(14) . . ?
U2 K1 U3 109.98(14) 12_655 . ?
U1 K1 U3 60.15(9) . . ?
U1 K1 U3 60.15(9) 12_655 . ?
O24 K2 O92 70.4(3) . . ?
O24 K2 O92 70.4(3) . 12_655 ?
O92 K2 O92 135.0(6) . 12_655 ?
O24 K2 O93 134.8(4) . . ?
O92 K2 O93 69.3(4) . . ?
O92 K2 O93 131.6(4) 12_655 . ?
O24 K2 O93 134.8(4) . 12_655 ?
O92 K2 O93 131.6(4) . 12_655 ?
O92 K2 O93 69.3(4) 12_655 12_655 ?
O93 K2 O93 66.8(6) . 12_655 ?
O24 K2 U5 19.3(4) . . ?
O92 K2 U5 67.8(3) . . ?
O92 K2 U5 67.8(3) 12_655 . ?
O93 K2 U5 121.2(3) . . ?
O93 K2 U5 121.2(3) 12_655 . ?
O24 K2 U12 68.3(2) . . ?
O92 K2 U12 17.9(3) . . ?
O92 K2 U12 122.1(4) 12_655 . ?
O93 K2 U12 67.0(3) . . ?
O93 K2 U12 119.5(3) 12_655 . ?
U5 K2 U12 59.77(9) . . ?
O24 K2 U12 68.3(2) . 12_655 ?
O92 K2 U12 122.1(4) . 12_655 ?
O92 K2 U12 17.9(3) 12_655 12_655 ?
O93 K2 U12 119.5(3) . 12_655 ?
O93 K2 U12 67.0(3) 12_655 12_655 ?
U5 K2 U12 59.77(9) . 12_655 ?
U12 K2 U12 106.74(16) . 12_655 ?
O24 K2 U11 123.1(3) . . ?
O92 K2 U11 66.9(3) . . ?
O92 K2 U11 120.7(3) 12_655 . ?
O93 K2 U11 16.6(3) . . ?
O93 K2 U11 65.2(3) 12_655 . ?
U5 K2 U11 106.89(14) . . ?
U12 K2 U11 59.38(6) . . ?
U12 K2 U11 105.96(15) 12_655 . ?
O24 K2 U11 123.1(3) . 12_655 ?
O92 K2 U11 120.7(3) . 12_655 ?
O92 K2 U11 66.9(3) 12_655 12_655 ?
O93 K2 U11 65.2(3) . 12_655 ?
O93 K2 U11 16.6(3) 12_655 12_655 ?
U5 K2 U11 106.89(14) . 12_655 ?
U12 K2 U11 105.96(15) . 12_655 ?
U12 K2 U11 59.38(6) 12_655 12_655 ?
U11 K2 U11 58.51(9) . 12_655 ?
O27 K3 O23 133.3(4) . 12_655 ?
O27 K3 O70 132.2(4) . 12_655 ?
O23 K3 O70 73.2(4) 12_655 12_655 ?
O27 K3 O86 67.8(4) . . ?
O23 K3 O86 137.2(4) 12_655 . ?
O70 K3 O86 68.8(4) 12_655 . ?
O27 K3 O81 69.3(4) . . ?
O23 K3 O81 68.1(4) 12_655 . ?
O70 K3 O81 135.8(4) 12_655 . ?
O86 K3 O81 132.8(4) . . ?
O27 K3 U4 121.8(3) . 12_655 ?
O23 K3 U4 18.4(3) 12_655 12_655 ?
O70 K3 U4 69.4(3) 12_655 12_655 ?
O86 K3 U4 123.4(3) . 12_655 ?
O81 K3 U4 67.1(3) . 12_655 ?
O27 K3 U10 120.9(3) . 12_655 ?
O23 K3 U10 70.1(3) 12_655 12_655 ?
O70 K3 U10 17.8(3) 12_655 12_655 ?
O86 K3 U10 67.6(3) . 12_655 ?
O81 K3 U10 122.6(3) . 12_655 ?
U4 K3 U10 60.96(8) 12_655 12_655 ?
O27 K3 U15 17.0(3) . . ?
O23 K3 U15 121.7(3) 12_655 . ?
O70 K3 U15 121.5(3) 12_655 . ?
O86 K3 U15 66.6(3) . . ?
O81 K3 U15 66.5(3) . . ?
U4 K3 U15 107.35(13) 12_655 . ?
U10 K3 U15 107.27(13) 12_655 . ?
O27 K3 U16 66.0(3) . . ?
O23 K3 U16 124.4(3) 12_655 . ?
O70 K3 U16 66.5(3) 12_655 . ?
O86 K3 U16 17.8(3) . . ?
O81 K3 U16 121.2(3) . . ?
U4 K3 U16 108.14(13) 12_655 . ?
U10 K3 U16 59.64(8) 12_655 . ?
U15 K3 U16 59.42(8) . . ?
O27 K3 U8 67.2(3) . . ?
O23 K3 U8 66.4(3) 12_655 . ?
O70 K3 U8 123.0(3) 12_655 . ?
O86 K3 U8 121.0(3) . . ?
O81 K3 U8 17.9(3) . . ?
U4 K3 U8 59.41(7) 12_655 . ?
U10 K3 U8 107.43(13) 12_655 . ?
U15 K3 U8 59.18(7) . . ?
U16 K3 U8 106.46(13) . . ?
O58 K4 O38 139.8(4) . . ?
O58 K4 O63 138.7(4) . . ?
O38 K4 O63 70.5(4) . . ?
O58 K4 O50 70.7(4) . . ?
O38 K4 O50 137.1(4) . . ?
O63 K4 O50 69.8(4) . . ?
O58 K4 O79 72.1(4) . . ?
O38 K4 O79 69.9(4) . . ?
O63 K4 O79 137.7(4) . . ?
O50 K4 O79 138.8(4) . . ?
O58 K4 U14 20.9(3) . . ?
O38 K4 U14 126.8(3) . . ?
O63 K4 U14 126.8(3) . . ?
O50 K4 U14 69.2(3) . . ?
O79 K4 U14 69.7(3) . . ?
O58 K4 U9 127.5(3) . . ?
O38 K4 U9 20.0(3) . . ?
O63 K4 U9 69.7(3) . . ?
O50 K4 U9 125.1(3) . . ?
O79 K4 U9 68.0(3) . . ?
U14 K4 U9 110.30(12) . . ?
O58 K4 U7 127.4(3) . . ?
O38 K4 U7 69.1(3) . . ?
O63 K4 U7 19.6(3) . . ?
O50 K4 U7 68.1(3) . . ?
O79 K4 U7 125.9(3) . . ?
U14 K4 U7 110.94(13) . . ?
U9 K4 U7 61.36(7) . . ?
O58 K4 U13 70.3(3) . . ?
O38 K4 U13 69.5(3) . . ?
O63 K4 U13 126.7(3) . . ?
O50 K4 U13 125.7(3) . . ?
O79 K4 U13 19.5(3) . . ?
U14 K4 U13 60.95(7) . . ?
U9 K4 U13 60.69(7) . . ?
U7 K4 U13 110.66(12) . . ?
O58 K4 U6 69.7(3) . . ?
O38 K4 U6 125.7(3) . . ?
O63 K4 U6 69.0(3) . . ?
O50 K4 U6 19.3(3) . . ?
O79 K4 U6 126.2(3) . . ?
U14 K4 U6 61.07(8) . . ?
U9 K4 U6 109.59(12) . . ?
U7 K4 U6 60.60(8) . . ?
U13 K4 U6 109.69(12) . . ?
C1 O1 U2 117.5(12) . . ?
O5 O2 U11 70.6(5) . 12_655 ?
O5 O2 U11 70.6(5) . . ?
U11 O2 U11 125.1(7) 12_655 . ?
U3 O3 K1 131.7(8) . . ?
C3 O4 U10 119.7(16) . . ?
O2 O5 U11 72.1(5) . 12_655 ?
O2 O5 U11 72.1(5) . . ?
U11 O5 U11 127.1(8) 12_655 . ?
O22 O7 U1 70.6(7) . . ?
O22 O7 U3 72.6(7) . . ?
U1 O7 U3 129.3(5) . . ?
O11 O8 U16 71.0(7) . . ?
O11 O8 U15 74.8(8) . . ?
U16 O8 U15 128.8(6) . . ?
O41 O9 U2 69.2(6) . . ?
O41 O9 U1 70.7(6) . . ?
U2 O9 U1 127.6(5) . . ?
O32 O10 U9 73.1(7) . . ?
O32 O10 U7 69.6(7) . . ?
U9 O10 U7 129.6(6) . . ?
O8 O11 U16 72.7(7) . . ?
O8 O11 U15 69.7(7) . . ?
U16 O11 U15 126.6(5) . . ?
O66 O12 U6 69.6(7) . . ?
O66 O12 U14 72.0(7) . . ?
U6 O12 U14 126.6(5) . . ?
O20 O13 U6 73.2(7) . . ?
O20 O13 U7 69.6(7) . . ?
U6 O13 U7 128.6(6) . . ?
O45 O15 U4 72.4(7) . . ?
O45 O15 U10 71.5(7) . . ?
U4 O15 U10 131.0(6) . . ?
O35 O16 U13 72.4(8) . . ?
O35 O16 U14 71.5(7) . . ?
U13 O16 U14 130.5(6) . . ?
O29 O17 U12 70.5(7) . . ?
O29 O17 U5 70.9(6) . . ?
U12 O17 U5 126.7(5) . . ?
O30 O18 U2 71.6(5) . . ?
O30 O18 U2 71.6(5) . 12_655 ?
U2 O18 U2 130.1(8) . 12_655 ?
O57 O19 U11 71.9(7) . . ?
O57 O19 U12 68.7(6) . . ?
U11 O19 U12 126.8(5) . . ?
O13 O20 U7 73.5(7) . . ?
O13 O20 U6 69.8(7) . . ?
U7 O20 U6 128.9(5) . . ?
O62 O21 U9 70.6(7) . . ?
O62 O21 U13 71.0(7) . . ?
U9 O21 U13 129.0(5) . . ?
O7 O22 U1 72.6(7) . . ?
O7 O22 U3 71.5(7) . . ?
U1 O22 U3 129.9(6) . . ?
U4 O23 K3 132.7(6) . 12_655 ?
U5 O24 K2 131.6(8) . . ?
O83 O25 U10 70.6(7) . 12_655 ?
O83 O25 U16 73.0(7) . . ?
U10 O25 U16 128.7(6) 12_655 . ?
C6 O26 U2 123.2(15) . . ?
U15 O27 K3 137.1(6) . . ?
O56 O28 U8 71.3(7) . . ?
O56 O28 U15 70.6(7) . . ?
U8 O28 U15 128.0(6) . . ?
O17 O29 U12 71.4(6) . . ?
O17 O29 U5 72.2(7) . . ?
U12 O29 U5 128.3(6) . . ?
O18 O30 U2 71.5(5) . 12_655 ?
O18 O30 U2 71.5(5) . . ?
U2 O30 U2 130.0(8) 12_655 . ?
U1 O31 K1 129.3(6) . . ?
O10 O32 U7 73.1(7) . . ?
O10 O32 U9 70.1(7) . . ?
U7 O32 U9 129.9(6) . . ?
U2 O34 K1 130.1(6) . . ?
O16 O35 U13 70.0(8) . . ?
O16 O35 U14 72.1(7) . . ?
U13 O35 U14 129.2(6) . . ?
C13 O36 U13 119.3(17) . . ?
C6 O37 U7 123.8(15) . . ?
U9 O38 K4 128.2(6) . . ?
C8 O39 U1 122.7(15) . . ?
C2 O40 U5 123.3(12) . . ?
O9 O41 U2 72.8(6) . . ?
O9 O41 U1 71.7(6) . . ?
U2 O41 U1 130.9(6) . . ?
O67 O42 U8 72.9(7) . . ?
O67 O42 U4 70.4(7) . 12_655 ?
U8 O42 U4 128.2(6) . 12_655 ?
C1 O43 U7 119.8(13) . . ?
C14 O44 U10 127.7(18) . . ?
O15 O45 U10 70.1(7) . . ?
O15 O45 U4 69.4(7) . . ?
U10 O45 U4 127.8(5) . . ?
C3 O46 U6 121.5(16) . . ?
C8 O47 U4 121.6(15) . . ?
C16 O49 U16 118.2(14) 4_556 . ?
U6 O50 K4 129.2(6) . . ?
C14 O51 U6 124.9(17) . . ?
C11 O53 U4 122.0(15) . . ?
C9 O54 U9 125.4(16) . . ?
C5 O55 U12 123.0(13) . . ?
O28 O56 U8 70.4(7) . . ?
O28 O56 U15 71.9(7) . . ?
U8 O56 U15 128.3(6) . . ?
O19 O57 U12 72.4(7) . . ?
O19 O57 U11 69.7(6) . . ?
U12 O57 U11 127.9(6) . . ?
U14 O58 K4 126.8(6) . . ?
C5 O59 U8 121.0(15) . . ?
C7 O61 U8 120.6(13) . . ?
O21 O62 U9 70.7(7) . . ?
O21 O62 U13 70.7(7) . . ?
U9 O62 U13 128.9(6) . . ?
U7 O63 K4 129.6(7) . . ?
C12 O64 U11 114.3(16) . . ?
C4 O65 U9 117.9(17) . . ?
O12 O66 U6 71.7(7) . . ?
O12 O66 U14 70.2(7) . . ?
U6 O66 U14 126.8(7) . . ?
O42 O67 U4 72.4(7) . 12_655 ?
O42 O67 U8 70.3(7) . . ?
U4 O67 U8 127.9(6) 12_655 . ?
C12 O69 U13 119.2(16) 9_656 . ?
U10 O70 K3 133.3(6) . 12_655 ?
C10 O71 U15 120.0(15) . . ?
C10 O73 U14 117.4(15) 9_656 . ?
C2 O74 U3 119.3(15) . . ?
C11 O75 U1 125.9(15) . . ?
C13 O78 U11 119.4(17) 9_656 . ?
U13 O79 K4 128.5(7) . . ?
C15 O80 U14 115.2(15) . . ?
U8 O81 K3 132.9(6) . . ?
C15 O82 U15 121.2(14) 9_656 . ?
O25 O83 U10 71.7(8) . 12_655 ?
O25 O83 U16 70.0(7) . . ?
U10 O83 U16 127.4(6) 12_655 . ?
C7 O84 U12 120.4(14) . . ?
U16 O86 K3 134.0(6) . . ?
C16 O89 U16 113.4(15) . . ?
U12 O92 K2 134.6(7) . . ?
U11 O93 K2 137.4(6) . . ?
O43 C1 O1 121.8(19) . . ?
O43 C1 C6 120(2) . . ?
O1 C1 C6 118(2) . . ?
O74 C2 O40 129(2) . . ?
O74 C2 C2 117.1(13) . 12_655 ?
O40 C2 C2 113.4(11) . 12_655 ?
O4 C3 O46 128(3) . . ?
O4 C3 C14 118(2) . . ?
O46 C3 C14 114(2) . . ?
O65 C4 O65 123(3) . 12_655 ?
O65 C4 C9 118.5(17) . . ?
O65 C4 C9 118.5(17) 12_655 . ?
O59 C5 O55 130(2) . . ?
O59 C5 C7 119(2) . . ?
O55 C5 C7 110(2) . . ?
O26 C6 O37 132(2) . . ?
O26 C6 C1 115(2) . . ?
O37 C6 C1 112(2) . . ?
O84 C7 O61 127(2) . . ?
O84 C7 C5 120(2) . . ?
O61 C7 C5 112(2) . . ?
O47 C8 O39 130(2) . . ?
O47 C8 C11 114(2) . . ?
O39 C8 C11 116(2) . . ?
O54 C9 O54 134(3) 12_655 . ?
O54 C9 C4 112.5(16) 12_655 . ?
O54 C9 C4 112.5(16) . . ?
O73 C10 O71 124(2) 9_656 . ?
O73 C10 C15 117(2) 9_656 9_656 ?
O71 C10 C15 119(2) . 9_656 ?
O53 C11 O75 134(2) . . ?
O53 C11 C8 116(2) . . ?
O75 C11 C8 110(2) . . ?
O64 C12 O69 120(2) . 9_656 ?
O64 C12 C13 124(3) . 9_656 ?
O69 C12 C13 115(2) 9_656 9_656 ?
O36 C13 O78 123(3) . 9_656 ?
O36 C13 C12 121(3) . 9_656 ?
O78 C13 C12 115(3) 9_656 9_656 ?
O44 C14 O51 138(3) . . ?
O44 C14 C3 108(2) . . ?
O51 C14 C3 114(2) . . ?
O80 C15 O82 123(2) . 9_656 ?
O80 C15 C10 123(2) . 9_656 ?
O82 C15 C10 115(2) 9_656 9_656 ?
O89 C16 O49 117.2(19) . 4_556 ?
O89 C16 C16 128(3) . 4_556 ?
O49 C16 C16 114(3) 4_556 4_556 ?

_diffrn_measured_fraction_theta_max    0.995
_diffrn_reflns_theta_full              18.38
_diffrn_measured_fraction_theta_full   0.995
_refine_diff_density_max    0.829
_refine_diff_density_min   -4.524
_refine_diff_density_rms    0.148

